# vtk DataFile Version 3.0
sol1
ASCII

DATASET STRUCTURED_GRID
DIMENSIONS 65 100 1
POINTS 6500 float
0 0 0
0.010101 0 0
0.020202 0 0
0.030303 0 0
0.040404 0 0
0.0505051 0 0
0.0606061 0 0
0.0707071 0 0
0.0808081 0 0
0.0909091 0 0
0.10101 0 0
0.111111 0 0
0.121212 0 0
0.131313 0 0
0.141414 0 0
0.151515 0 0
0.161616 0 0
0.171717 0 0
0.181818 0 0
0.191919 0 0
0.20202 0 0
0.212121 0 0
0.222222 0 0
0.232323 0 0
0.242424 0 0
0.252525 0 0
0.262626 0 0
0.272727 0 0
0.282828 0 0
0.292929 0 0
0.30303 0 0
0.313131 0 0
0.323232 0 0
0.333333 0 0
0.343434 0 0
0.353535 0 0
0.363636 0 0
0.373737 0 0
0.383838 0 0
0.393939 0 0
0.40404 0 0
0.414141 0 0
0.424242 0 0
0.434343 0 0
0.444444 0 0
0.454545 0 0
0.464646 0 0
0.474747 0 0
0.484848 0 0
0.494949 0 0
0.505051 0 0
0.515152 0 0
0.525253 0 0
0.535354 0 0
0.545455 0 0
0.555556 0 0
0.565657 0 0
0.575758 0 0
0.585859 0 0
0.59596 0 0
0.606061 0 0
0.616162 0 0
0.626263 0 0
0.636364 0 0
0.646465 0 0
0 0.010101 0
0.010101 0.010101 0
0.020202 0.010101 0
0.030303 0.010101 0
0.040404 0.010101 0
0.0505051 0.010101 0
0.0606061 0.010101 0
0.0707071 0.010101 0
0.0808081 0.010101 0
0.0909091 0.010101 0
0.10101 0.010101 0
0.111111 0.010101 0
0.121212 0.010101 0
0.131313 0.010101 0
0.141414 0.010101 0
0.151515 0.010101 0
0.161616 0.010101 0
0.171717 0.010101 0
0.181818 0.010101 0
0.191919 0.010101 0
0.20202 0.010101 0
0.212121 0.010101 0
0.222222 0.010101 0
0.232323 0.010101 0
0.242424 0.010101 0
0.252525 0.010101 0
0.262626 0.010101 0
0.272727 0.010101 0
0.282828 0.010101 0
0.292929 0.010101 0
0.30303 0.010101 0
0.313131 0.010101 0
0.323232 0.010101 0
0.333333 0.010101 0
0.343434 0.010101 0
0.353535 0.010101 0
0.363636 0.010101 0
0.373737 0.010101 0
0.383838 0.010101 0
0.393939 0.010101 0
0.40404 0.010101 0
0.414141 0.010101 0
0.424242 0.010101 0
0.434343 0.010101 0
0.444444 0.010101 0
0.454545 0.010101 0
0.464646 0.010101 0
0.474747 0.010101 0
0.484848 0.010101 0
0.494949 0.010101 0
0.505051 0.010101 0
0.515152 0.010101 0
0.525253 0.010101 0
0.535354 0.010101 0
0.545455 0.010101 0
0.555556 0.010101 0
0.565657 0.010101 0
0.575758 0.010101 0
0.585859 0.010101 0
0.59596 0.010101 0
0.606061 0.010101 0
0.616162 0.010101 0
0.626263 0.010101 0
0.636364 0.010101 0
0.646465 0.010101 0
0 0.020202 0
0.010101 0.020202 0
0.020202 0.020202 0
0.030303 0.020202 0
0.040404 0.020202 0
0.0505051 0.020202 0
0.0606061 0.020202 0
0.0707071 0.020202 0
0.0808081 0.020202 0
0.0909091 0.020202 0
0.10101 0.020202 0
0.111111 0.020202 0
0.121212 0.020202 0
0.131313 0.020202 0
0.141414 0.020202 0
0.151515 0.020202 0
0.161616 0.020202 0
0.171717 0.020202 0
0.181818 0.020202 0
0.191919 0.020202 0
0.20202 0.020202 0
0.212121 0.020202 0
0.222222 0.020202 0
0.232323 0.020202 0
0.242424 0.020202 0
0.252525 0.020202 0
0.262626 0.020202 0
0.272727 0.020202 0
0.282828 0.020202 0
0.292929 0.020202 0
0.30303 0.020202 0
0.313131 0.020202 0
0.323232 0.020202 0
0.333333 0.020202 0
0.343434 0.020202 0
0.353535 0.020202 0
0.363636 0.020202 0
0.373737 0.020202 0
0.383838 0.020202 0
0.393939 0.020202 0
0.40404 0.020202 0
0.414141 0.020202 0
0.424242 0.020202 0
0.434343 0.020202 0
0.444444 0.020202 0
0.454545 0.020202 0
0.464646 0.020202 0
0.474747 0.020202 0
0.484848 0.020202 0
0.494949 0.020202 0
0.505051 0.020202 0
0.515152 0.020202 0
0.525253 0.020202 0
0.535354 0.020202 0
0.545455 0.020202 0
0.555556 0.020202 0
0.565657 0.020202 0
0.575758 0.020202 0
0.585859 0.020202 0
0.59596 0.020202 0
0.606061 0.020202 0
0.616162 0.020202 0
0.626263 0.020202 0
0.636364 0.020202 0
0.646465 0.020202 0
0 0.030303 0
0.010101 0.030303 0
0.020202 0.030303 0
0.030303 0.030303 0
0.040404 0.030303 0
0.0505051 0.030303 0
0.0606061 0.030303 0
0.0707071 0.030303 0
0.0808081 0.030303 0
0.0909091 0.030303 0
0.10101 0.030303 0
0.111111 0.030303 0
0.121212 0.030303 0
0.131313 0.030303 0
0.141414 0.030303 0
0.151515 0.030303 0
0.161616 0.030303 0
0.171717 0.030303 0
0.181818 0.030303 0
0.191919 0.030303 0
0.20202 0.030303 0
0.212121 0.030303 0
0.222222 0.030303 0
0.232323 0.030303 0
0.242424 0.030303 0
0.252525 0.030303 0
0.262626 0.030303 0
0.272727 0.030303 0
0.282828 0.030303 0
0.292929 0.030303 0
0.30303 0.030303 0
0.313131 0.030303 0
0.323232 0.030303 0
0.333333 0.030303 0
0.343434 0.030303 0
0.353535 0.030303 0
0.363636 0.030303 0
0.373737 0.030303 0
0.383838 0.030303 0
0.393939 0.030303 0
0.40404 0.030303 0
0.414141 0.030303 0
0.424242 0.030303 0
0.434343 0.030303 0
0.444444 0.030303 0
0.454545 0.030303 0
0.464646 0.030303 0
0.474747 0.030303 0
0.484848 0.030303 0
0.494949 0.030303 0
0.505051 0.030303 0
0.515152 0.030303 0
0.525253 0.030303 0
0.535354 0.030303 0
0.545455 0.030303 0
0.555556 0.030303 0
0.565657 0.030303 0
0.575758 0.030303 0
0.585859 0.030303 0
0.59596 0.030303 0
0.606061 0.030303 0
0.616162 0.030303 0
0.626263 0.030303 0
0.636364 0.030303 0
0.646465 0.030303 0
0 0.040404 0
0.010101 0.040404 0
0.020202 0.040404 0
0.030303 0.040404 0
0.040404 0.040404 0
0.0505051 0.040404 0
0.0606061 0.040404 0
0.0707071 0.040404 0
0.0808081 0.040404 0
0.0909091 0.040404 0
0.10101 0.040404 0
0.111111 0.040404 0
0.121212 0.040404 0
0.131313 0.040404 0
0.141414 0.040404 0
0.151515 0.040404 0
0.161616 0.040404 0
0.171717 0.040404 0
0.181818 0.040404 0
0.191919 0.040404 0
0.20202 0.040404 0
0.212121 0.040404 0
0.222222 0.040404 0
0.232323 0.040404 0
0.242424 0.040404 0
0.252525 0.040404 0
0.262626 0.040404 0
0.272727 0.040404 0
0.282828 0.040404 0
0.292929 0.040404 0
0.30303 0.040404 0
0.313131 0.040404 0
0.323232 0.040404 0
0.333333 0.040404 0
0.343434 0.040404 0
0.353535 0.040404 0
0.363636 0.040404 0
0.373737 0.040404 0
0.383838 0.040404 0
0.393939 0.040404 0
0.40404 0.040404 0
0.414141 0.040404 0
0.424242 0.040404 0
0.434343 0.040404 0
0.444444 0.040404 0
0.454545 0.040404 0
0.464646 0.040404 0
0.474747 0.040404 0
0.484848 0.040404 0
0.494949 0.040404 0
0.505051 0.040404 0
0.515152 0.040404 0
0.525253 0.040404 0
0.535354 0.040404 0
0.545455 0.040404 0
0.555556 0.040404 0
0.565657 0.040404 0
0.575758 0.040404 0
0.585859 0.040404 0
0.59596 0.040404 0
0.606061 0.040404 0
0.616162 0.040404 0
0.626263 0.040404 0
0.636364 0.040404 0
0.646465 0.040404 0
0 0.0505051 0
0.010101 0.0505051 0
0.020202 0.0505051 0
0.030303 0.0505051 0
0.040404 0.0505051 0
0.0505051 0.0505051 0
0.0606061 0.0505051 0
0.0707071 0.0505051 0
0.0808081 0.0505051 0
0.0909091 0.0505051 0
0.10101 0.0505051 0
0.111111 0.0505051 0
0.121212 0.0505051 0
0.131313 0.0505051 0
0.141414 0.0505051 0
0.151515 0.0505051 0
0.161616 0.0505051 0
0.171717 0.0505051 0
0.181818 0.0505051 0
0.191919 0.0505051 0
0.20202 0.0505051 0
0.212121 0.0505051 0
0.222222 0.0505051 0
0.232323 0.0505051 0
0.242424 0.0505051 0
0.252525 0.0505051 0
0.262626 0.0505051 0
0.272727 0.0505051 0
0.282828 0.0505051 0
0.292929 0.0505051 0
0.30303 0.0505051 0
0.313131 0.0505051 0
0.323232 0.0505051 0
0.333333 0.0505051 0
0.343434 0.0505051 0
0.353535 0.0505051 0
0.363636 0.0505051 0
0.373737 0.0505051 0
0.383838 0.0505051 0
0.393939 0.0505051 0
0.40404 0.0505051 0
0.414141 0.0505051 0
0.424242 0.0505051 0
0.434343 0.0505051 0
0.444444 0.0505051 0
0.454545 0.0505051 0
0.464646 0.0505051 0
0.474747 0.0505051 0
0.484848 0.0505051 0
0.494949 0.0505051 0
0.505051 0.0505051 0
0.515152 0.0505051 0
0.525253 0.0505051 0
0.535354 0.0505051 0
0.545455 0.0505051 0
0.555556 0.0505051 0
0.565657 0.0505051 0
0.575758 0.0505051 0
0.585859 0.0505051 0
0.59596 0.0505051 0
0.606061 0.0505051 0
0.616162 0.0505051 0
0.626263 0.0505051 0
0.636364 0.0505051 0
0.646465 0.0505051 0
0 0.0606061 0
0.010101 0.0606061 0
0.020202 0.0606061 0
0.030303 0.0606061 0
0.040404 0.0606061 0
0.0505051 0.0606061 0
0.0606061 0.0606061 0
0.0707071 0.0606061 0
0.0808081 0.0606061 0
0.0909091 0.0606061 0
0.10101 0.0606061 0
0.111111 0.0606061 0
0.121212 0.0606061 0
0.131313 0.0606061 0
0.141414 0.0606061 0
0.151515 0.0606061 0
0.161616 0.0606061 0
0.171717 0.0606061 0
0.181818 0.0606061 0
0.191919 0.0606061 0
0.20202 0.0606061 0
0.212121 0.0606061 0
0.222222 0.0606061 0
0.232323 0.0606061 0
0.242424 0.0606061 0
0.252525 0.0606061 0
0.262626 0.0606061 0
0.272727 0.0606061 0
0.282828 0.0606061 0
0.292929 0.0606061 0
0.30303 0.0606061 0
0.313131 0.0606061 0
0.323232 0.0606061 0
0.333333 0.0606061 0
0.343434 0.0606061 0
0.353535 0.0606061 0
0.363636 0.0606061 0
0.373737 0.0606061 0
0.383838 0.0606061 0
0.393939 0.0606061 0
0.40404 0.0606061 0
0.414141 0.0606061 0
0.424242 0.0606061 0
0.434343 0.0606061 0
0.444444 0.0606061 0
0.454545 0.0606061 0
0.464646 0.0606061 0
0.474747 0.0606061 0
0.484848 0.0606061 0
0.494949 0.0606061 0
0.505051 0.0606061 0
0.515152 0.0606061 0
0.525253 0.0606061 0
0.535354 0.0606061 0
0.545455 0.0606061 0
0.555556 0.0606061 0
0.565657 0.0606061 0
0.575758 0.0606061 0
0.585859 0.0606061 0
0.59596 0.0606061 0
0.606061 0.0606061 0
0.616162 0.0606061 0
0.626263 0.0606061 0
0.636364 0.0606061 0
0.646465 0.0606061 0
0 0.0707071 0
0.010101 0.0707071 0
0.020202 0.0707071 0
0.030303 0.0707071 0
0.040404 0.0707071 0
0.0505051 0.0707071 0
0.0606061 0.0707071 0
0.0707071 0.0707071 0
0.0808081 0.0707071 0
0.0909091 0.0707071 0
0.10101 0.0707071 0
0.111111 0.0707071 0
0.121212 0.0707071 0
0.131313 0.0707071 0
0.141414 0.0707071 0
0.151515 0.0707071 0
0.161616 0.0707071 0
0.171717 0.0707071 0
0.181818 0.0707071 0
0.191919 0.0707071 0
0.20202 0.0707071 0
0.212121 0.0707071 0
0.222222 0.0707071 0
0.232323 0.0707071 0
0.242424 0.0707071 0
0.252525 0.0707071 0
0.262626 0.0707071 0
0.272727 0.0707071 0
0.282828 0.0707071 0
0.292929 0.0707071 0
0.30303 0.0707071 0
0.313131 0.0707071 0
0.323232 0.0707071 0
0.333333 0.0707071 0
0.343434 0.0707071 0
0.353535 0.0707071 0
0.363636 0.0707071 0
0.373737 0.0707071 0
0.383838 0.0707071 0
0.393939 0.0707071 0
0.40404 0.0707071 0
0.414141 0.0707071 0
0.424242 0.0707071 0
0.434343 0.0707071 0
0.444444 0.0707071 0
0.454545 0.0707071 0
0.464646 0.0707071 0
0.474747 0.0707071 0
0.484848 0.0707071 0
0.494949 0.0707071 0
0.505051 0.0707071 0
0.515152 0.0707071 0
0.525253 0.0707071 0
0.535354 0.0707071 0
0.545455 0.0707071 0
0.555556 0.0707071 0
[...]
POINT_DATA 6500
SCALARS U float
LOOKUP_TABLE default
0
0.0126848
0.0253185
0.0378502
0.0502296
0.0624067
0.0743325
0.085959
0.0972393
0.108128
0.118582
0.128558
0.138016
0.146918
0.155229
0.162915
0.169945
0.176291
0.181926
0.18683
0.19098
0.194362
0.196962
0.198768
0.199773
0.199975
0.199371
0.197964
0.19576
0.192768
0.189
0.184471
0.179199
0.173205
0.166514
0.159152
0.15115
0.142539
0.133354
0.123632
0.113412
0.102735
0.0916453
0.0801861
0.068404
0.0563465
0.0440621
0.0316003
0.0190112
0.00634559
-0.00634559
-0.0190112
-0.0316003
-0.0440621
-0.0563465
-0.068404
-0.0801861
-0.0916453
-0.102735
-0.113412
-0.123632
-0.133354
-0.142539
-0.15115
-0.159152
-0.145414
-0.0530844
-0.00893101
0.0184544
0.03899
0.0562135
0.0715486
0.0856307
0.0987659
0.111107
0.122731
0.133671
0.143939
0.153531
0.162438
0.170645
0.178135
0.184889
0.190891
0.196126
0.200577
0.204233
0.207084
0.209123
0.210343
0.210745
0.210327
0.209095
0.207054
0.204216
0.200593
0.196201
0.19106
0.18519
0.178617
0.171368
0.163473
0.154965
0.145879
0.136252
0.126123
0.115534
0.104529
0.0931516
0.0814484
0.069467
0.0572561
0.0448652
0.0323445
0.0197446
0.00711643
-0.00548896
-0.0180208
-0.0304286
-0.0426625
-0.0546734
-0.066413
-0.0778341
-0.0888904
-0.0995364
-0.109726
-0.119413
-0.128544
-0.13705
-0.144822
-0.104741
-0.0438048
0.00040966
0.0326802
0.0577842
0.0785815
0.0966424
0.112827
0.127619
0.141293
0.15401
0.165863
0.176905
0.187162
0.196647
0.205361
0.213299
0.220454
0.226817
0.232377
0.237124
0.241052
0.244152
0.24642
0.247854
0.248453
0.24822
0.247161
0.245283
0.242598
0.23912
0.234865
0.229853
0.224107
0.217651
0.210514
0.202727
0.194322
0.185334
0.175802
0.165765
0.155264
0.144344
0.133048
0.121424
0.109519
0.0973813
0.0850614
0.0726093
0.0600754
0.0475106
0.0349659
0.0224918
0.0101386
-0.00204425
-0.0140079
-0.0257046
-0.0370876
-0.0481107
-0.0587285
-0.0688945
-0.0785595
-0.0876665
-0.0961423
-0.103882
-0.043068
0.00313468
0.0425817
0.0749096
0.101672
0.124424
0.144302
0.162061
0.178187
0.192989
0.206665
0.219339
0.231089
0.241964
0.251992
0.261186
0.269553
0.277092
0.283802
0.289678
0.294713
0.298905
0.302248
0.304742
0.306384
0.307178
0.307128
0.306239
0.304522
0.301988
0.298653
0.294534
0.28965
0.284026
0.277688
0.270663
0.262982
0.254679
0.24579
0.236352
0.226406
0.215993
0.205157
0.193943
0.182398
0.170569
0.158505
0.146257
0.133873
0.121406
0.108905
0.0964216
0.084006
0.0717082
0.0595774
0.0476619
0.0360089
0.0246646
0.0136739
0.00308123
-0.00706878
-0.0167294
-0.0258487
-0.0343644
-0.0421967
0.0306643
0.0688265
0.103819
0.134599
0.161416
0.184937
0.205829
0.22463
0.241735
0.257425
0.271892
0.285268
0.297641
0.30907
0.319592
0.32923
0.337997
0.345898
0.352938
0.359114
0.364426
0.368872
0.372451
0.375162
0.377008
0.377992
0.378119
0.377398
0.375838
0.373453
0.370259
0.366273
0.361517
0.356014
0.34979
0.342876
0.335301
0.3271
0.318308
0.308964
0.299108
0.288783
0.278031
0.266898
0.255432
0.243679
0.231689
0.219512
0.207198
0.194797
0.182361
0.169939
0.157583
0.145342
0.133265
0.121399
0.109791
0.0984869
0.0875292
0.0769602
0.066821
0.0571521
0.0479954
0.0393951
0.0314001
0.105789
0.139017
0.170546
0.19948
0.225635
0.249207
0.270528
0.289928
0.307688
0.324027
0.339112
0.353062
0.365962
0.377872
0.388832
0.39887
0.408001
0.416237
0.423584
0.430043
0.435616
0.440304
0.444107
0.447029
0.449071
0.450238
0.450538
0.449979
0.448573
0.446333
0.443276
0.439421
0.43479
0.429406
0.423296
0.416491
0.40902
0.400919
0.392224
0.382973
0.373207
0.362968
0.3523
0.341248
0.32986
0.318183
0.306268
0.294162
0.281917
0.269584
0.257212
0.244854
0.232558
0.220375
0.208353
0.19654
0.18498
0.173719
0.162797
0.152254
0.142126
0.132447
0.123245
0.114547
0.106369
0.171442
0.201369
0.23028
0.257503
0.282747
0.305993
0.327363
0.347034
0.365183
0.381964
0.397505
0.411902
0.425231
0.437546
0.448884
0.459274
0.468732
0.477272
0.484899
0.49162
0.497437
0.502353
0.506369
0.50949
0.511719
0.513062
0.513528
0.513126
0.511868
0.50977
0.506847
0.50312
0.49861
0.493343
0.487345
0.480646
0.473278
0.465276
0.456676
0.447517
0.43784
0.427686
0.417101
0.40613
0.39482
0.383219
0.371377
0.359343
0.347168
0.334902
0.322596
0.310302
0.298068
0.285945
0.273981
0.262223
0.250715
0.239501
0.228621
0.218111
0.208003
0.198323
0.189089
0.18031
0.171975
0.218118
0.245696
0.272608
0.29836
0.322664
0.34541
0.366606
0.386325
0.404662
0.421715
0.437571
0.452302
0.465968
0.478613
0.490269
0.500961
0.510706
0.519516
0.527398
0.534358
0.5404
0.545527
0.549742
0.55305
0.555457
0.556968
0.557592
0.557341
0.556226
0.554264
0.551471
0.547868
0.543477
0.538323
0.532434
0.52584
0.518573
0.510668
0.502162
0.493093
0.483503
0.473434
0.462931
0.45204
0.440808
0.429282
0.417513
0.405551
0.393445
0.381248
0.369009
0.356779
0.344609
0.332548
0.320645
0.308945
0.297494
0.286335
0.275504
0.265038
0.254965
0.245306
0.23607
0.227253
0.218827
0.239032
0.264858
0.290216
0.314735
0.338158
0.360347
0.38125
0.400874
0.419257
0.43645
0.452506
0.467473
0.481393
0.494298
0.506215
0.517162
0.527154
0.536201
0.544309
0.551485
0.557731
0.563053
0.567453
0.570936
0.573509
0.575178
0.575953
0.575846
0.574868
0.573036
0.570369
0.566885
0.562609
0.557565
0.551783
0.545291
0.538122
0.530312
0.521898
0.512918
0.503414
0.493429
0.483007
0.472195
0.461039
0.449589
0.437893
0.426002
0.413966
0.401837
0.389665
0.377502
0.365397
0.3534
0.34156
0.329924
0.318535
0.307437
0.296667
0.28626
0.276242
0.266633
0.257437
0.248645
0.24022
0.231092
0.255567
0.279693
0.303182
0.325816
0.34745
0.368004
0.387448
0.40578
0.423016
0.439182
0.454304
0.468406
0.481511
0.493636
0.504793
0.514993
0.524244
0.532551
0.539919
0.54635
0.551848
0.556417
0.560063
0.562791
0.564609
0.565526
0.565554
0.564707
0.563
0.560452
0.557084
0.552919
0.547982
0.542302
0.535909
0.528837
0.521119
0.512795
0.503902
0.494483
0.48458
0.474238
0.463504
0.452424
0.441047
0.429424
0.417604
0.405638
0.393578
0.381474
0.369378
0.357339
0.345409
0.333635
0.322066
0.310745
0.299716
0.289019
0.278686
0.268747
0.25922
0.250114
0.241418
0.233098
0.195343
0.218747
0.241878
0.264506
0.286443
0.307553
0.327743
0.346961
0.365179
0.382391
0.398598
0.413809
0.428035
0.441287
0.453572
0.464898
0.475271
0.484696
0.493174
0.50071
0.507305
0.512963
0.517687
0.521481
0.524353
0.526309
0.527359
0.527515
0.526791
0.525204
0.52277
0.519512
0.515453
0.51062
0.505039
0.498743
0.491763
0.484136
0.475899
0.467092
0.457755
0.447933
0.43767
0.427012
0.416007
0.404704
0.393153
0.381404
0.369507
0.357516
0.34548
0.333451
0.32148
0.309618
0.297913
0.286414
0.275167
0.264215
0.253599
0.243356
0.233518
0.224107
0.215136
0.206606
0.198494
0.136815
0.159353
0.181668
0.20357
0.2249
0.245527
0.265359
0.28433
0.302398
0.319538
0.335735
0.350986
0.365287
0.37864
0.391045
0.402504
0.413018
0.422587
0.431212
0.438894
0.445634
0.451434
0.456297
0.460227
0.46323
0.465314
0.466488
0.466765
0.466157
0.464681
0.462357
0.459204
0.455247
0.450512
0.445027
0.438824
0.431935
0.424395
0.416244
0.407519
0.398264
0.38852
0.378334
0.367752
0.356821
0.34559
0.33411
0.322431
0.310604
0.29868
0.286713
0.274752
0.262849
0.251056
0.239422
0.227997
0.216826
0.205957
0.195432
0.185291
0.17557
0.166301
0.157505
0.149197
0.141376
0.0638048
0.0856309
0.107268
0.128556
0.149354
0.169546
0.189037
0.207756
0.225653
0.24269
0.258843
0.274094
0.288432
0.301849
0.31434
0.325899
0.336524
0.346211
0.354959
0.362767
0.369633
0.375559
0.380546
0.384599
0.387723
0.389924
0.391213
0.391601
0.391102
0.389733
0.387511
0.384459
0.380599
0.375958
0.370566
0.364452
0.35765
0.350195
0.342126
0.333483
0.324306
0.31464
0.304529
0.29402
0.283162
0.272003
0.260593
0.248983
0.237224
0.225369
0.213469
0.201576
0.189742
0.178019
0.166456
0.155105
0.144014
0.133231
0.122801
0.112769
0.103178
0.0940654
0.0854684
0.0774182
0.069941
-0.0133125
0.00791987
0.028987
0.049751
0.0700869
0.0898864
0.109059
0.127532
0.145249
0.162165
0.178247
0.19347
0.207815
0.221266
0.233813
0.245446
0.256156
0.265939
0.274789
0.282702
0.289677
0.295713
0.300811
0.304974
0.308207
0.310516
0.311911
0.312402
0.312005
0.310735
0.30861
0.305652
0.301885
0.297335
0.29203
0.286002
0.279284
0.271911
0.263923
0.255357
0.246257
0.236666
0.226629
0.216193
0.205406
0.194317
0.182976
0.171434
0.159743
0.147955
0.136122
0.124297
0.112531
0.100877
0.0893856
0.0781089
0.067097
0.0563997
0.0460661
0.036145
0.0266846
0.0177334
0.00934057
0.00155714
-0.0055626
-0.0835718
-0.0628393
-0.0422548
-0.0219403
-0.00200855
0.0174402
0.0363193
0.0545562
0.072091
0.0888753
0.10487
0.120044
0.134373
0.147835
0.160414
0.172096
0.182871
0.192728
0.20166
0.209662
0.21673
0.222862
0.228057
0.232318
0.235649
0.238055
0.239547
0.240135
0.239832
0.238654
0.23662
0.233752
0.230072
0.225608
0.220387
0.214441
0.207804
0.200511
0.192599
0.18411
0.175084
0.165566
0.155601
0.145236
0.134518
0.123498
0.112224
0.10075
0.0891255
0.0774037
0.0656368
0.0538777
0.0421788
0.0305927
0.0191718
0.00796802
-0.00296671
-0.0135806
-0.0238218
-0.0336375
-0.0429738
-0.0517737
-0.059976
-0.0675121
-0.0743018
-0.136987
-0.116678
-0.0965055
-0.0765784
-0.0570003
-0.0378648
-0.0192545
-0.00124085
0.0161154
0.0327631
0.0486598
0.06377
0.0780641
0.0915174
0.104109
0.115822
0.126641
0.136555
0.145553
0.153628
0.160774
0.166987
0.172267
0.176615
0.180034
0.182529
0.184109
0.184785
0.184569
0.183477
0.181529
0.178745
0.175148
0.170765
0.165624
0.159757
0.153197
0.14598
0.138143
0.129727
0.120774
0.111327
0.101431
0.0911348
0.0804851
0.0695316
0.0583249
0.046916
0.0353569
0.0237001
0.011998
0.000303828
-0.0113296
-0.0228494
-0.0342027
-0.0453366
-0.0561981
-0.0667342
-0.0768907
-0.0866119
-0.0958393
-0.10451
-0.112553
-0.119887
-0.126411
-0.165983
-0.146035
-0.126214
-0.106622
-0.0873537
-0.0684977
-0.0501328
-0.0323284
-0.0151452
0.00136477
0.0171567
0.0321924
0.046439
0.0598685
0.0724571
0.084184
0.095032
0.104986
0.114035
0.122168
0.129379
0.135662
0.141016
0.14544
0.148937
0.151512
0.153172
0.153928
0.153793
0.152782
0.150913
0.148207
0.144689
0.140383
0.135318
0.129526
0.12304
0.115895
0.10813
0.099785
0.0909013
0.0815231
0.0716958
0.0614662
0.0508827
0.0399947
0.0288528
0.0175082
0.00601297
-0.00558043
-0.0172191
-0.0288501
-0.0404202
-0.0518761
-0.0631647
-0.0742328
-0.0850268
-0.0954927
-0.105575
-0.115217
-0.124357
-0.132929
-0.140858
-0.148054
-0.154407
-0.166478
-0.146838
-0.127318
-0.108015
-0.0890191
-0.0704129
-0.0522718
-0.034663
-0.017646
-0.00127287
0.0144105
0.0293643
0.0435533
0.0569473
0.0695196
0.0812472
0.0921102
0.102092
0.111178
0.119358
0.126621
0.132964
0.13838
0.142871
0.146437
0.149083
0.150816
0.151645
0.151584
0.150647
0.148852
0.14622
0.142775
0.138542
0.133549
0.127828
0.121413
0.114338
0.106642
0.0983648
0.0895485
0.0802368
0.0704752
0.0603107
0.0497916
0.0389674
0.0278887
0.0166068
0.00517385
-0.00635767
-0.0179348
-0.0295044
-0.0410133
-0.0524081
-0.0636357
-0.0746426
-0.0853754
-0.0957798
-0.105801
-0.115381
-0.124459
-0.132969
-0.140835
-0.147968
-0.154259
-0.138473
-0.119092
-0.0998293
-0.0807763
-0.0620189
-0.0436362
-0.0256998
-0.00827395
0.00858375
0.0248219
0.0403947
0.0552613
0.0693853
0.0827344
0.0952801
0.106997
0.117864
0.127862
0.136974
0.145189
0.152495
0.158886
0.164357
0.168905
0.172532
0.175241
0.177039
0.177936
0.177942
0.177073
0.175347
0.172784
0.169408
0.165243
0.160318
0.154665
0.148317
0.141309
0.133679
0.125467
0.116716
0.107468
0.0977706
0.0876691
0.0772126
0.0664504
0.0554332
0.0442124
0.0328401
0.0213688
0.00985142
-0.00165884
-0.0131088
-0.0244454
-0.0356154
-0.046566
-0.0572439
-0.0675958
-0.0775674
-0.0871031
-0.0961443
-0.104628
-0.112483
-0.119629
-0.125965
-0.0860459
-0.0668812
-0.0478345
-0.0289957
-0.0104478
0.00773387
0.0254819
0.0427355
0.0594398
0.0755451
0.0910061
0.105782
0.119835
0.133132
0.145643
0.15734
0.168201
0.178205
0.187335
0.195575
0.202915
0.209345
0.214861
0.219459
0.223139
0.225905
0.227762
0.228718
0.228787
0.227981
0.226318
0.223819
0.220507
0.216407
0.211547
0.205958
0.199673
0.192729
0.185162
0.177013
0.168324
0.159139
0.149503
0.139462
0.129066
0.118364
0.107407
0.0962457
0.0849323
0.0735196
0.0620603
0.0506075
0.0392141
0.0279332
0.0168174
0.00591901
-0.00470972
-0.0150168
-0.02495
-0.0344566
-0.0434825
-0.0519708
-0.0598603
-0.0670827
-0.0735581
-0.0167718
0.00221977
0.0210896
0.0397468
0.0581104
0.0761096
0.093682
0.110771
0.127327
0.143301
0.158649
0.173331
0.187308
0.200548
0.213017
0.224688
0.235535
0.245537
0.254675
0.262933
0.270299
0.276761
0.282315
0.286955
0.290682
0.293497
0.295406
0.296417
0.296542
0.295794
0.29419
0.291751
0.288498
0.284458
0.279659
0.274131
0.267907
0.261023
0.253517
0.245429
0.2368
0.227674
0.218097
0.208116
0.197778
0.187135
0.176236
0.165132
0.153876
0.14252
0.131117
0.11972
0.108382
0.0971542
0.0860899
0.0752403
0.0646565
0.0543885
0.0444858
0.0349974
0.0259716
0.0174569
0.00950224
0.00215833
-0.00452091
0.0593648
0.0782296
0.0969626
0.115469
0.133669
0.151499
0.168904
0.185834
0.202242
0.218084
0.233319
0.247904
0.261803
0.27498
0.287402
0.299041
0.309868
0.319862
0.329002
0.337271
0.344655
0.351142
0.356727
0.361403
0.36517
0.368029
0.369985
0.371045
0.371221
0.370526
0.368976
0.366592
0.363396
0.359413
0.35467
0.3492
0.343034
0.336207
0.328759
0.320728
0.312157
0.303088
0.293569
0.283644
0.273364
0.262777
0.251934
0.240887
0.229687
0.218386
0.207038
0.195695
0.18441
0.173234
0.16222
0.151417
0.140875
0.130643
0.120768
0.111292
0.10226
0.0937088
0.0856757
0.0781913
0.0712812
0.1314
0.150194
0.168834
0.187217
0.205269
0.222936
0.240175
0.256945
0.273205
0.288915
0.304033
0.31852
0.332338
0.345449
0.357821
0.369422
0.380225
0.390206
0.399342
0.407615
0.415012
0.421519
0.427128
0.431835
0.435637
0.438534
0.440531
0.441636
0.441858
0.441211
0.439711
0.437378
0.434234
0.430304
0.425616
0.420199
0.414088
0.407316
0.399923
0.391947
0.383431
0.374418
0.364953
0.355084
0.344859
0.334327
0.323539
0.312546
0.3014
0.290154
0.278859
0.267569
0.256336
0.245211
0.234245
0.223488
0.212989
0.202793
0.192944
0.183483
0.174446
0.165863
0.157757
0.150142
0.143015
0.18896
0.207761
0.226361
0.244645
0.262552
0.280051
0.297116
0.313719
0.329827
0.345401
0.360402
0.374789
0.388523
0.401567
0.413885
0.425447
0.436221
0.446184
0.455312
0.463586
0.47099
0.477511
0.483141
0.487873
0.491704
0.494635
0.496669
0.497813
0.498077
0.497475
0.496021
0.493735
0.49064
0.486759
0.482121
0.476756
0.470696
0.463977
0.456636
0.448713
0.440249
0.431289
0.421878
0.412062
0.40189
0.391411
0.380676
0.369736
0.358643
0.347449
0.336207
0.324969
0.313787
0.302713
0.291796
0.281086
0.27063
0.260472
0.250655
0.241216
0.232185
0.223586
0.215433
0.207723
0.200433
0.22375
0.242683
0.261307
0.2795
0.297245
0.314552
0.331424
0.347848
0.363795
0.37923
0.394111
0.408397
0.422048
0.435023
0.447287
0.458806
0.46955
0.479492
0.488608
0.496878
0.504286
0.510818
0.516463
0.521216
0.525073
0.528033
0.5301
0.531279
0.531582
0.531019
0.529608
0.527366
0.524315
0.520481
0.51589
0.510573
0.504562
0.497892
0.490601
0.482728
0.474315
0.465406
0.456046
0.446281
0.43616
0.425733
0.41505
0.404161
0.39312
0.381978
0.370787
0.359601
0.34847
0.337445
0.326578
0.315916
0.305507
0.295393
0.285615
0.276209
0.267202
0.258615
0.250453
0.242706
0.235338
0.230741
0.250036
0.268756
0.286826
0.304348
0.321411
0.338056
0.354281
0.370059
0.385351
0.400112
0.414299
0.427866
0.440773
0.452983
0.464459
0.475171
0.48509
0.494192
0.502456
0.509865
0.516403
0.522061
0.526831
0.530709
0.533694
0.53579
0.537001
0.537338
0.536812
0.535439
0.533238
0.53023
0.526439
0.521892
0.51662
0.510655
0.504032
0.496789
0.488964
0.480599
0.471739
0.462428
0.452712
0.442641
0.432264
0.42163
0.410792
0.399801
0.38871
0.37757
0.366434
0.355353
0.34438
0.333563
0.322952
0.312593
0.302529
0.292801
0.283442
0.274482
0.265938
0.257816
0.250103
0.242761
0.208889
0.229044
0.247883
0.26568
0.282838
0.299568
0.31594
0.331946
0.347548
0.362698
0.377342
0.391432
0.40492
0.417762
0.429918
0.441352
0.452031
0.461927
0.471013
0.479269
0.486676
0.493218
0.498885
0.503669
0.507566
0.510573
0.512694
0.513934
0.514302
0.513809
0.512472
0.510308
0.507338
0.503588
0.499083
0.493853
0.487932
0.481353
0.474155
0.466376
0.458057
0.449244
0.439979
0.430312
0.420289
0.409959
0.399374
0.388585
0.377643
0.366601
0.355511
0.344425
0.333395
0.322473
0.311708
0.30115
0.290846
0.280838
0.271169
0.261874
0.252983
0.244517
0.236485
0.22888
0.221671
0.161288
0.183541
0.202174
0.219246
0.235776
0.252056
0.268113
0.283892
0.299323
0.314338
0.328874
0.342874
0.356288
0.369068
0.381174
0.392568
0.403215
0.413087
0.422157
0.430403
0.437806
0.44435
0.450024
0.45482
0.458731
0.461758
0.463901
0.465167
0.465562
0.4651
0.463796
0.461666
0.458733
0.455019
0.450553
0.445364
0.439484
0.432947
0.425791
0.418056
0.409782
0.401013
0.391794
0.382172
0.372195
0.361912
0.351374
0.340632
0.329738
0.318744
0.307703
0.296666
0.285687
0.274816
0.264105
0.253602
0.243355
0.23341
0.22381
0.214592
0.20579
0.197432
0.189535
0.182103
0.175123
0.0947234
0.122618
0.138933
0.154211
0.16977
0.185527
0.201274
0.216849
0.232132
0.247031
0.261473
0.275395
0.288742
0.301468
0.313527
0.324883
0.335501
0.34535
0.354403
0.362639
0.370036
0.376581
0.382259
0.387064
0.390988
0.394031
0.396195
0.397483
0.397904
0.397469
0.396194
0.394097
0.391197
0.387519
0.383089
0.377938
0.372096
0.365599
0.358484
0.35079
0.342558
0.333832
0.324656
0.315078
0.305146
0.294908
0.284415
0.27372
0.262872
0.251925
0.240931
0.229944
0.219014
0.208195
0.197537
0.18709
0.176904
0.167025
0.157499
0.148368
0.139671
0.131443
0.123713
0.116502
0.109822
0.0947234
0.0637387
0.0671445
0.0792572
0.0938806
0.109272
0.124825
0.140268
0.155449
0.170262
0.18463
0.198488
0.21178
0.224457
0.236476
0.247797
0.258387
0.268214
0.277251
0.285476
0.292868
0.299411
0.305093
0.309904
0.31384
0.316897
0.319078
0.320386
0.32083
0.320421
0.319173
0.317105
0.314236
0.310591
0.306195
0.301079
0.295274
0.288815
0.281738
0.274083
0.265892
0.257206
0.248073
0.238537
0.228647
0.218453
0.208004
0.197353
0.18655
0.175649
0.164702
0.153762
0.142881
0.132112
0.121507
0.111117
0.100992
0.0911807
0.0817319
0.0726921
0.0641066
0.056019
0.0484717
0.0415057
0.0351606
-0.0559075
-0.0282003
-0.0120715
0.00302231
0.0184025
0.0339864
0.0495683
0.0649864
0.0801223
0.0948855
0.109203
0.123012
0.136259
0.148895
0.160878
0.172169
0.182734
0.19254
0.201562
0.209776
0.217161
0.223702
0.229386
0.234203
0.238148
0.241218
0.243413
0.24474
0.245204
0.244818
0.243596
0.241554
0.238714
0.235099
0.230736
0.225653
0.219882
0.213458
0.206418
0.198801
0.190648
0.182002
0.172908
0.163413
0.153564
0.143411
0.133005
0.122397
0.111638
0.100781
0.0898795
0.0789856
0.0681525
0.057433
0.0468795
0.0365441
0.0264783
0.0167334
0.00736019
-0.00159038
-0.0100669
-0.0180168
-0.0253847
-0.0321107
-0.0381275
-0.11844
-0.0965626
-0.0783047
-0.0616019
-0.0454321
-0.029499
-0.0137746
0.00168995
0.0168267
0.031569
0.0458554
0.0596299
0.0728419
0.0854453
0.0973981
0.108662
0.119204
0.128991
0.137999
0.146202
0.153581
0.160119
0.165804
0.170625
0.174577
0.177658
0.179867
0.181209
0.181692
0.181327
0.180128
0.178111
0.175298
0.171711
0.167377
0.162325
0.156587
0.150197
0.143192
0.13561
0.127494
0.118885
0.109829
0.100373
0.0905639
0.0804516
0.0700863
0.0595194
0.0488027
0.0379888
0.0271307
0.0162814
0.00549409
-0.00517813
-0.0156823
-0.0259655
-0.0359752
-0.0456584
-0.0549619
-0.0638313
-0.0722101
-0.080038
-0.087249
-0.0937672
-0.0995023
-0.159951
-0.140365
-0.122093
-0.104854
-0.0882409
-0.0720355
-0.0561654
-0.0406334
-0.0254744
-0.0107354
0.00353388
0.0172844
0.0304696
0.0430459
0.054973
0.0662138
0.0767347
0.0865053
0.0954987
0.103692
0.111064
0.117599
0.123283
0.128108
0.132067
0.135156
0.137377
0.138734
0.139234
0.138888
0.137709
0.135715
0.132927
0.129366
0.125061
0.120038
0.114331
0.107972
0.101
0.0934522
0.0853704
0.0767974
0.0677781
0.058359
0.048588
0.0385144
0.0281884
0.0176614
0.00698532
-0.00378729
-0.0146035
-0.02541
-0.0361537
-0.046781
-0.0572389
-0.0674738
-0.0774324
-0.0870608
-0.096304
-0.105105
-0.113405
-0.121138
-0.12823
-0.134596
-0.140129
-0.174506
-0.15598
-0.138024
-0.120706
-0.103918
-0.0875616
-0.0715913
-0.0560035
-0.0408207
-0.026079
-0.01182
0.00191295
0.0150769
0.0276307
0.0395358